LAMMPS Description (2021-04-30 12:47:56.370308)

4806 atoms
3348 bonds
2538 angles

6 atom types
2 bond types
2 angle types

-11.257468632648 -11.257468632648 xlo xhi
-11.257468632648 -11.257468632648 ylo yhi
-11.257468632648 -11.257468632648 zlo zhi

Masses

 1      15.999400000000
 2      1.007940000000
 3      12.011000000000
 4      1.007940000000
 5      12.011000000000
 6      1.007940000000

Atoms

        1       0       1       -0.829999999999999960   -9.184474810471618511   -9.133762077363849485   -9.110006779270763744   0.0     0.0     0.0
        2       0       2       0.414999999999999980    -9.490760273325626883   -9.948543696290347071   -8.641300752314052147   0.0     0.0     0.0
        3       0       2       0.414999999999999980    -8.675087325120880877   -9.502915001232363323   -9.874499722524348044   0.0     0.0     0.0
        4       0       1       -0.829999999999999960   -11.250554484682121270  -7.697771437342889378   -9.901542579955393109   0.0     0.0     0.0
        5       0       2       0.414999999999999980    -11.177003418740156349  -7.589820941145939415   -10.877693987298142630  0.0     0.0     0.0
        6       0       2       0.414999999999999980    -10.475769825891610765  -8.273923890897279421   -9.684335505591347371   0.0     0.0     0.0
        7       0       1       -0.829999999999999960   0.055766461837673538    -5.527106558944120174   -8.387803017569291697   0.0     0.0     0.0
        8       0       2       0.414999999999999980    0.095185615302502177    -6.364287385097672001   -8.914210667478593919   0.0     0.0     0.0
        9       0       2       0.414999999999999980    -10.490303958951738394  -5.556143146784069842   -7.855966225027447791   0.0     0.0     0.0
        10      0       1       -0.829999999999999960   -1.958612305974962053   -1.903636864064249368   -9.194658429750649731   0.0     0.0     0.0
        11      0       2       0.414999999999999980    -2.533603884856292954   -2.487163339258756878   -8.638005293882423885   0.0     0.0     0.0
        12      0       2       0.414999999999999980    -1.220631810147115415   -2.511384668544152987   -9.449413126233086047   0.0     0.0     0.0
        13      0       1       -0.829999999999999960   0.084250753024037853    -3.386220008371085832   -9.932481545694045622   0.0     0.0     0.0
        14      0       2       0.414999999999999980    0.096013241153654061    -4.229399545039941088   -9.416958684759048737   0.0     0.0     0.0
        15      0       2       0.414999999999999980    -10.482293553624737470  -2.932314318298162359   -9.599940120884626893   0.0     0.0     0.0
        16      0       1       -0.829999999999999960   -1.920063282565305451   -9.083105762047122056   -1.991557011258658250   0.0     0.0     0.0
        17      0       2       0.414999999999999980    -1.666041736018946562   -9.889423413852764355   -2.505251693735449425   0.0     0.0     0.0
        18      0       2       0.414999999999999980    -2.456946083172864004   -9.449790112757563421   -1.246608389420778007   0.0     0.0     0.0
        19      0       1       -0.829999999999999960   -11.198154163623254220  -7.648576238893676660   -1.243536532045312004   0.0     0.0     0.0
        20      0       2       0.414999999999999980    -0.589717649290623092   -8.214046959254247326   -1.491988323003222927   0.0     0.0     0.0
        21      0       2       0.414999999999999980    -10.434873446001878605  -8.225341526826463578   -1.485420926853869172   0.0     0.0     0.0
        22      0       1       -0.829999999999999960   -11.204420752630705138  -5.509479790900368990   -2.816154231318451107   0.0     0.0     0.0
        23      0       2       0.414999999999999980    -11.203580323858007617  -6.317482376319831339   -2.247865926449200025   0.0     0.0     0.0
        24      0       2       0.414999999999999980    0.055615870063676513    -4.787924566925154224   -2.145382297378497061   0.0     0.0     0.0
        25      0       1       -0.829999999999999960   -9.226420868201319792   -1.977283364086502848   -1.862999904148586738   0.0     0.0     0.0
        26      0       2       0.414999999999999980    -8.660601015600837727   -2.547549538121354651   -2.442547845303401743   0.0     0.0     0.0
        27      0       2       0.414999999999999980    -9.967307827382887453   -2.581787944226523468   -1.622762771331733189   0.0     0.0     0.0
        28      0       1       -0.829999999999999960   0.017864133784097787    -3.437778894469615931   -1.203222069336551625   0.0     0.0     0.0
        29      0       2       0.414999999999999980    -0.001357270864017906   -3.477682979751576919   -0.215655572290289033   0.0     0.0     0.0
        30      0       2       0.414999999999999980    -0.730283388453119020   -2.825221151934719455   -1.411931496488476601   0.0     0.0     0.0
        31      0       1       -0.829999999999999960   -9.949648507503793482   0.105762473679088628    -7.775933987525726288   0.0     0.0     0.0
        32      0       2       0.414999999999999980    -9.518944538281211010   0.123794844756548325    -6.884830721311357316   0.0     0.0     0.0
        33      0       2       0.414999999999999980    -10.917220796477275613  0.113401141858140514    -7.575990262934196195   0.0     0.0     0.0
        34      0       1       -0.829999999999999960   -8.493842967029895163   -11.215247769722299864  -5.543674535064577746   0.0     0.0     0.0
        35      0       2       0.414999999999999980    -8.998851360838029834   -11.242708743756919532  -4.695455852195888902   0.0     0.0     0.0
        36      0       2       0.414999999999999980    -7.968756133958804000   -0.676224309093650944   -5.517469130589097048   0.0     0.0     0.0
        37      0       1       -0.829999999999999960   -9.914957159391342145   0.133981990723649330    -3.298127567191840637   0.0     0.0     0.0
        38      0       2       0.414999999999999980    -10.896143873941834812  0.109560741009860990    -3.408873663741498028   0.0     0.0     0.0
        39      0       2       0.414999999999999980    -9.741918479812628817   -0.667544488792315760   -2.746265244236509417   0.0     0.0     0.0
        40      0       1       -0.829999999999999960   -1.239881601164274816   -11.241119512283123782  -7.693968490351474010   0.0     0.0     0.0
        41      0       2       0.414999999999999980    -1.477231241722657407   -0.626489268400873711   -8.274895853413799074   0.0     0.0     0.0
        42      0       2       0.414999999999999980    -1.465457450329374245   -10.482593531178716617  -8.284364955096929606   0.0     0.0     0.0
        43      0       1       -0.829999999999999960   -2.799730138216894648   -11.243049945982489746  -5.540619584819609145   0.0     0.0     0.0
        44      0       2       0.414999999999999980    -2.279017741258979157   -11.211952878234704656  -6.380025122180574826   0.0     0.0     0.0
        45      0       2       0.414999999999999980    -3.302137622817081564   -10.390182751002134509  -5.558469053651747593   0.0     0.0     0.0
        46      0       1       -0.829999999999999960   -1.204725590267003765   -11.197221025841104236  -3.401347834207844478   0.0     0.0     0.0
        47      0       2       0.414999999999999980    -1.730082186277553946   -11.226939528526262535  -4.236220015538944672   0.0     0.0     0.0
        48      0       2       0.414999999999999980    -1.542574675909467397   -0.610290805245983337   -2.911767149440815494   0.0     0.0     0.0
        49      0       1       -0.829999999999999960   -7.821641030047132404   -9.946958466093700935   -11.205608794117821958  0.0     0.0     0.0
        50      0       2       0.414999999999999980    -6.932533585022607525   -9.510259125483045750   -11.219794629051630608  0.0     0.0     0.0
        51      0       2       0.414999999999999980    -7.628651899259080160   -10.915672235944120061  -11.210830034340951045  0.0     0.0     0.0
        52      0       1       -0.829999999999999960   -5.631628683224708887   -8.466280625667126358   22.876102625172944016   0.0     0.0     -1.0
        53      0       2       0.414999999999999980    -4.776033524231227290   -8.960596188060568679   0.135516897662608438    0.0     0.0     0.0
        54      0       2       0.414999999999999980    -5.613266026878635628   -7.948112482708875604   -10.416121089190941262  0.0     0.0     0.0
        55      0       1       -0.829999999999999960   -3.375149264854610198   -9.858705524686909527   0.079409274934602883    0.0     0.0     0.0
        56      0       2       0.414999999999999980    -3.453541010146165213   -10.842516143589119082  -11.243742036124620753  0.0     0.0     0.0
        57      0       2       0.414999999999999980    -2.797368304456954391   -9.652618281355421104   -10.522649594693241681  0.0     0.0     0.0
        58      0       1       -0.829999999999999960   -7.774508662748415233   -1.218096532996682413   -11.181360154984108846  0.0     0.0     0.0
        59      0       2       0.414999999999999980    -6.932805339502155384   -1.732885932266906792   -11.215509179224518732  0.0     0.0     0.0
        60      0       2       0.414999999999999980    -8.267867592147208455   -1.546755958952383603   -0.596685937882044382   0.0     0.0     0.0
        61      0       1       -0.829999999999999960   -5.556481787816432316   -2.678272865719784512   -11.194566572711487140  0.0     0.0     0.0
        62      0       2       0.414999999999999980    -5.654535813782642251   -3.334541959028090474   -10.460225517758765079  0.0     0.0     0.0
        63      0       2       0.414999999999999980    -5.531305939802569682   -3.251128814003221734   -0.621221440061596408   0.0     0.0     0.0
        64      0       1       -0.829999999999999960   -3.401616935332383296   -1.133971891696479606   -11.254645313455172939  0.0     0.0     0.0
        65      0       2       0.414999999999999980    -4.225987088925116986   -1.672535654160081986   -11.175361906115936605  0.0     0.0     0.0
        66      0       2       0.414999999999999980    -2.871734874225663425   -1.448628318547826810   -10.480821378464773019  0.0     0.0     0.0
        67      0       1       -0.829999999999999960   -3.509890851985773885   -3.398717022668029220   -7.718552822094371990   0.0     0.0     0.0
        68      0       2       0.414999999999999980    -3.034792238725464664   -4.209364072827977310   -7.410340473822408569   0.0     0.0     0.0
        69      0       2       0.414999999999999980    -4.281667480668961190   -3.778784709486957105   -8.206157384749404926   0.0     0.0     0.0
        70      0       1       -0.829999999999999960   -2.162862014156875734   -5.531718889025038166   -6.940782057714334208   0.0     0.0     0.0
        71      0       2       0.414999999999999980    -1.274342312351464779   -5.526342911244156220   -7.379097052199934836   0.0     0.0     0.0
        72      0       2       0.414999999999999980    -1.959541477749922045   -5.505944808417991609   -5.973494324126197519   0.0     0.0     0.0
        73      0       1       -0.829999999999999960   -7.687030473692888499   -7.621811161678894386   -7.567506277025922046   0.0     0.0     0.0
        74      0       2       0.414999999999999980    -8.251947050161589914   -8.206149073191237875   -8.133829734760753993   0.0     0.0     0.0
        75      0       2       0.414999999999999980    -7.420970011172358660   -8.226648114672196144   -6.831127935250181693   0.0     0.0     0.0
        76      0       1       -0.829999999999999960   -9.176485635691731702   -5.567121786757485147   -6.841787566277106158   0.0     0.0     0.0
        77      0       2       0.414999999999999980    -8.597999288980428645   -6.330031432773607136   -7.081290596312216579   0.0     0.0     0.0
        78      0       2       0.414999999999999980    -8.587183540638777757   -4.807365722994203949   -7.073629634185551573   0.0     0.0     0.0
        79      0       1       -0.829999999999999960   -3.450008770762598154   -7.549241450814646370   -3.482894444851953430   0.0     0.0     0.0
        80      0       2       0.414999999999999980    -2.886691070313509577   -8.130983465835527113   -2.915434085323878932   0.0     0.0     0.0
        81      0       2       0.414999999999999980    -4.179096068168581368   -7.295365611935312522   -2.867491164600984632   0.0     0.0     0.0
        82      0       1       -0.829999999999999960   -2.040975708928145949   -5.478786604299465957   -4.296718464288381334   0.0     0.0     0.0
        83      0       2       0.414999999999999980    -1.196949772432907233   -5.506030182071707912   -3.787238118389439023   0.0     0.0     0.0
        84      0       2       0.414999999999999980    -2.525416468449123375   -6.271873662311680420   -3.953020895709733917   0.0     0.0     0.0
        85      0       1       -0.829999999999999960   -7.646126503085602266   -3.405862759692080743   -3.381053005781068155   0.0     0.0     0.0
        86      0       2       0.414999999999999980    -8.090330907124194226   -4.225830229933304594   -3.713750020035176735   0.0     0.0     0.0
        87      0       2       0.414999999999999980    -6.875397667478327257   -3.765181450951890607   -2.876344675367108916   0.0     0.0     0.0
        88      0       1       -0.829999999999999960   -8.945849137787114103   -5.535141117043214543   -4.179681620941698483   0.0     0.0     0.0
        89      0       2       0.414999999999999980    -9.834075712073548914   -5.503190100972660481   -3.742296207712798584   0.0     0.0     0.0
        90      0       2       0.414999999999999980    -9.162311823452169435   -5.552157290523966893   -5.143085207841682660   0.0     0.0     0.0
        91      0       1       -0.829999999999999960   -5.634835880657893092   -4.253670428543560256   -9.062787955188575495   0.0     0.0     0.0
        92      0       2       0.414999999999999980    -5.689729622858220814   -5.232840023655108475   -9.147310645711664634   0.0     0.0     0.0
        93      0       2       0.414999999999999980    -6.387463652625984700   -4.042925193916770965   -8.455154999359105972   0.0     0.0     0.0
        94      0       1       -0.829999999999999960   -5.528543148563528575   -4.165492866120294124   -2.021939398362584406   0.0     0.0     0.0
        95      0       2       0.414999999999999980    -5.472638296834126947   -5.146773876429026728   -1.934850780807557902   0.0     0.0     0.0
        96      0       2       0.414999999999999980    -4.757778922446714631   -3.954999686538626325   -2.605571575836244325   0.0     0.0     0.0
        97      0       1       -0.829999999999999960   -5.633503780970003483   -6.952350533515462061   -9.083299765436530393   0.0     0.0     0.0
        98      0       2       0.414999999999999980    -6.378565494552039361   -7.199378661569943105   -8.484975005224461242   0.0     0.0     0.0
        99      0       2       0.414999999999999980    -4.843862023436328990   -7.198844386814386986   -8.546950514321189019   0.0     0.0     0.0
        100     0       1       -0.829999999999999960   -5.509815374862113480   -6.833821812411835950   -1.971279672705162245   0.0     0.0     0.0
        101     0       2       0.414999999999999980    -5.563815816070057707   -7.375908033081631565   -1.147682648287937202   0.0     0.0     0.0
        102     0       2       0.414999999999999980    -6.301553413338615961   -7.154733792515068025   -2.470982662765703441   0.0     0.0     0.0
        103     0       1       -0.829999999999999960   -4.341214362842611862   -2.031284316405936874   -5.600027845995459330   0.0     0.0     0.0
        104     0       2       0.414999999999999980    -3.819336912041708665   -1.192232413093937460   -5.598950659241556771   0.0     0.0     0.0
        105     0       2       0.414999999999999980    -4.009523140651308992   -2.483611377868114811   -6.413073914092796812   0.0     0.0     0.0
        106     0       1       -0.829999999999999960   -4.220909128445436309   -9.007073990477298508   -5.547946296335229732   0.0     0.0     0.0
        107     0       2       0.414999999999999980    -5.201236743172269250   -9.112193497078528992   -5.480428294209827911   0.0     0.0     0.0
        108     0       2       0.414999999999999980    -4.011291207583855822   -8.427647877121687614   -4.774533426516780033   0.0     0.0     0.0
        109     0       1       -0.829999999999999960   -6.996213887709753720   -2.010819869767118906   -5.508831897397460153   0.0     0.0     0.0
        110     0       2       0.414999999999999980    -6.012293796193566742   -1.924304343569187337   -5.534069689577802542   0.0     0.0     0.0
        111     0       2       0.414999999999999980    -7.137629174896162887   -2.530221964287960201   -4.678147831133919965   0.0     0.0     0.0
        112     0       1       -0.829999999999999960   -6.890826092794173796   -9.088343644456521986   -5.537434237585761032   0.0     0.0     0.0
        113     0       2       0.414999999999999980    -7.422179853883625888   -9.918864271946601363   -5.509210934946075611   0.0     0.0     0.0
        114     0       2       0.414999999999999980    -7.204399507312503559   -8.599384881703640460   -4.736242648643616882   0.0     0.0     0.0
        115     0       1       -0.829999999999999960   -1.978152344080948311   -1.878492848591745590   -1.975422133022553428   0.0     0.0     0.0
        116     0       2       0.414999999999999980    -2.555860589578834219   -2.453072387337091431   -2.537612361334357303   0.0     0.0     0.0
        117     0       2       0.414999999999999980    -2.583496184507700910   -1.620592799571233256   -1.238399952924119862   0.0     0.0     0.0
        118     0       1       -0.829999999999999960   -9.125221082160452468   -9.123497078114926495   -1.951084289341017630   0.0     0.0     0.0
        119     0       2       0.414999999999999980    -9.438742946658429389   -9.939095307449239414   -2.414074721482937225   0.0     0.0     0.0
        120     0       2       0.414999999999999980    -8.649107207422668253   -9.489635684311364727   -1.162935575611637073   0.0     0.0     0.0
        121     0       1       -0.829999999999999960   -9.156181663073619248   -2.050355281784894235   -9.079892327573327648   0.0     0.0     0.0
        122     0       2       0.414999999999999980    -9.480498170754422915   -1.232496443079974968   -8.628739093761735646   0.0     0.0     0.0
        123     0       2       0.414999999999999980    -8.669153095715559587   -1.680497470238089486   -9.857055659150862681   0.0     0.0     0.0
        124     0       1       -0.829999999999999960   -1.930815579448450059   -9.199471183698348042   -9.205466826843270667   0.0     0.0     0.0
        125     0       2       0.414999999999999980    -2.500783229230961524   -8.619488411062352640   -8.639863390682640087   0.0     0.0     0.0
        126     0       2       0.414999999999999980    -1.198490740139470878   -8.585100708669729741   -9.457341260927092819   0.0     0.0     0.0
        127     0       1       -0.829999999999999960   -7.559001404663302282   -7.661509617888104806   -3.431587794975049732   0.0     0.0     0.0
        128     0       2       0.414999999999999980    -8.156864927216757266   -8.208793258046208408   -2.862774870065741162   0.0     0.0     0.0
        129     0       2       0.414999999999999980    -8.140986593357323997   -6.904670518165906046   -3.689177995020379353   0.0     0.0     0.0
        130     0       1       -0.829999999999999960   -3.471791464349677447   -3.402358214971202610   -3.493905868354242550   0.0     0.0     0.0
        131     0       2       0.414999999999999980    -2.944303808019756996   -4.155761223740261912   -3.855717239296096110   0.0     0.0     0.0
        132     0       2       0.414999999999999980    -3.793066193371230188   -2.943382759538039739   -4.307964029827769714   0.0     0.0     0.0
        133     0       1       -0.829999999999999960   -7.662714254961525029   -3.546765374980120900   -7.542344672946816431   0.0     0.0     0.0
        134     0       2       0.414999999999999980    -8.222408626804252663   -2.962449603698122491   -8.115483687890156617   0.0     0.0     0.0
        135     0       2       0.414999999999999980    -7.420029161551639163   -2.934709409137831848   -6.804690554156402449   0.0     0.0     0.0
        136     0       1       -0.829999999999999960   -3.484902228311140160   -7.688518894380401925   -7.714031527659148679   0.0     0.0     0.0
        137     0       2       0.414999999999999980    -3.007747527439348367   -6.901407570944906311   -7.353351011010870408   0.0     0.0     0.0
        138     0       2       0.414999999999999980    -3.790603204384797031   -8.152089943881225764   -6.896257746010905798   0.0     0.0     0.0
        139     0       3       -0.239999999999999991   -5.634680240346638946   -11.068656735130593560  -8.440871953499033964   0.0     0.0     0.0
        140     0       4       0.059999999999999998    -4.958793855594042732   -10.892932780636455092  -9.272906991438659929   0.0     0.0     0.0
        141     0       4       0.059999999999999998    -6.080959216882078522   -10.128374752201276365  -8.130742462585482500   0.0     0.0     0.0
        142     0       4       0.059999999999999998    -6.416485795505943557   -0.380103747725469010   -8.745845765397353588   0.0     0.0     0.0
        143     0       4       0.059999999999999998    -5.082438128056747217   -0.117616165155311633   -7.609412921031182719   0.0     0.0     0.0
        144     0       3       -0.239999999999999991   -5.497026991425387088   -10.925110792254681513  -2.718346327060322754   0.0     0.0     0.0
        145     0       4       0.059999999999999998    -4.460466807549326340   -11.100556407527850666  -2.991939250440188047   0.0     0.0     0.0
        146     0       4       0.059999999999999998    -5.630480972093161895   -9.879306920535075420   -2.457221770080024736   0.0     0.0     0.0
        147     0       4       0.059999999999999998    -6.141410801670587283   -11.173052841183714889  -3.556521166845928672   0.0     0.0     0.0
        148     0       4       0.059999999999999998    -5.756335825190880051   -0.169441026954258889   -1.867173189362263841   0.0     0.0     0.0
        149     0       3       -0.239999999999999991   -2.786978085668132099   -5.316795781908001395   -11.073539710814490178  0.0     0.0     0.0
        150     0       4       0.059999999999999998    -1.913731812399502408   -5.170498200182238158   -0.324492071601022447   0.0     0.0     0.0
        151     0       4       0.059999999999999998    -3.099738500049597612   -4.362945305591909850   -10.659014155463326645  0.0     0.0     0.0
        152     0       4       0.059999999999999998    -3.595807927427637996   -5.734500040713053082   -0.287079659457054437   0.0     0.0     0.0
        153     0       4       0.059999999999999998    -2.541041589883003660   -6.000445914231974598   -10.265923896534484783  0.0     0.0     0.0
        154     0       3       -0.239999999999999991   -8.496178492611084820   -5.298421332105373693   -0.026029211114080828   0.0     0.0     0.0
        155     0       4       0.059999999999999998    -7.573242883493699118   -5.819633767319049689   -0.264044018137663872   0.0     0.0     0.0
        156     0       4       0.059999999999999998    -8.290213804668507436   -4.241619503041763828   0.117537039649965799    0.0     0.0     0.0
        157     0       4       0.059999999999999998    -9.202735554820085540   -5.423994624740726245   -0.841144999868371657   0.0     0.0     0.0
        158     0       4       0.059999999999999998    -8.922264446354510881   -5.710742445037557680   -10.494673048217785905  0.0     0.0     0.0
        159     0       3       -0.239999999999999991   -11.183288784798453008  -2.645945357494861483   -5.708347198011542112   0.0     0.0     0.0
        160     0       4       0.059999999999999998    -10.138440542106463838  -2.466482363767665387   -5.944026645553427635   0.0     0.0     0.0
        161     0       4       0.059999999999999998    -0.224048682030213636   -1.765850664328143083   -5.229504841362710543   0.0     0.0     0.0
        162     0       4       0.059999999999999998    -0.352058224653860496   -2.855218134027596388   -6.623143180728785495   0.0     0.0     0.0
        163     0       4       0.059999999999999998    0.116777866514033907    -3.496082678125055576   -5.036906940134929123   0.0     0.0     0.0
        164     0       3       -0.239999999999999991   -11.167835441346174008  -8.358447628763208570   -5.381498901788599909   0.0     0.0     0.0
        165     0       4       0.059999999999999998    -10.236831443368586747  -8.286306353162320448   -5.936355501812186297   0.0     0.0     0.0
        166     0       4       0.059999999999999998    -0.333112745566332080   -7.421475213635075896   -5.458994408928163011   0.0     0.0     0.0
        167     0       4       0.059999999999999998    -0.393314625349650782   -9.164198182316313890   -5.789351825341002566   0.0     0.0     0.0
        168     0       4       0.059999999999999998    -10.950943086286823558  -8.563062050685450899   -4.337387936578099179   0.0     0.0     0.0
        169     0       5       -0.239999999999999991   -5.547873944608731733   -5.518403024068947005   -5.568601340495731300   0.0     0.0     0.0
        170     0       6       0.059999999999999998    -4.477089863094545485   -5.339448402215314360   -5.604533106978485613   0.0     0.0     0.0
        171     0       6       0.059999999999999998    -6.061065140671320073   -4.599710671071245649   -5.299623114087809839   0.0     0.0     0.0
        172     0       6       0.059999999999999998    -5.891694966157547952   -5.853328253237483736   -6.542684656358634498   0.0     0.0     0.0
        173     0       6       0.059999999999999998    -5.763605305191705774   -6.282891886422781624   -4.827657068037662036   0.0     0.0     0.0
        174     0       5       -0.239999999999999991   -11.237420599567510493  -11.236843844522992342  -11.223392994014945501  0.0     0.0     0.0
        175     0       6       0.059999999999999998    -10.164268709456431239  -11.205554945805612732  -0.009920545518500239   0.0     0.0     0.0
        176     0       6       0.059999999999999998    -0.062152507065887076   -11.252313146412532774  -10.156468544306950008  0.0     0.0     0.0
        177     0       6       0.059999999999999998    -0.319889352288661943   -10.359472131823778795  -0.288913914614074896   0.0     0.0     0.0
        178     0       6       0.059999999999999998    -0.268915455921128477   -0.754222177647875802   -0.302986571249428072   0.0     0.0     0.0
        179     0       1       -0.829999999999999960   -9.184474810471618511   -9.133762077363856591   2.268305642494220731    0.0     0.0     0.0
        180     0       2       0.414999999999999980    -9.490760273325623331   -9.948543696290336413   2.737011669450958973    0.0     0.0     0.0
        181     0       2       0.414999999999999980    -8.675087325120868442   -9.502915001232373982   1.503812699240633322    0.0     0.0     0.0
        182     0       1       -0.829999999999999960   -11.250554484682119494  -7.697771437342889378   1.476769841809595585    0.0     0.0     0.0
        183     0       2       0.414999999999999980    -11.177003418740145690  -7.589820941145939415   0.500618434466843842    0.0     0.0     0.0
        184     0       2       0.414999999999999980    -10.475769825891610765  -8.273923890897279421   1.693976916173659975    0.0     0.0     0.0
        185     0       1       -0.829999999999999960   0.055766461837689518    -5.527106558944131720   2.990509404195691445    0.0     0.0     0.0
        186     0       2       0.414999999999999980    0.095185615302502177    -6.364287385097668448   2.464101754286349255    0.0     0.0     0.0
        187     0       2       0.414999999999999980    -10.490303958951734842  -5.556143146784084053   3.522346196737518031    0.0     0.0     0.0
        188     0       1       -0.829999999999999960   -1.958612305974953172   -1.903636864064249368   2.183653992014382261    0.0     0.0     0.0
        189     0       2       0.414999999999999980    -2.533603884856280519   -2.487163339258785300   2.740307127882573024    0.0     0.0     0.0
        190     0       2       0.414999999999999980    -1.220631810147115415   -2.511384668544152987   1.928899295531911084    0.0     0.0     0.0
        191     0       1       -0.829999999999999960   0.084250753024039657    -3.386220008371085832   1.445830876070945736    0.0     0.0     0.0
        192     0       2       0.414999999999999980    0.096013241153654061    -4.229399545039926878   1.961353737005984810    0.0     0.0     0.0
        193     0       2       0.414999999999999980    -10.482293553624733917  -2.932314318298176570   1.778372300880369794    0.0     0.0     0.0
        194     0       1       -0.829999999999999960   -1.920063282565316110   -9.083105762047114951   9.386755410506355091    0.0     0.0     0.0
        195     0       2       0.414999999999999980    -1.666041736018937680   -9.889423413852782119   8.873060728029633637    0.0     0.0     0.0
        196     0       2       0.414999999999999980    -2.456946083172864004   -9.449790112757556315   10.131704032344231337   0.0     0.0     0.0
        197     0       1       -0.829999999999999960   -11.198154163623257773  -7.648576238893676660   10.134775889719691122   0.0     0.0     0.0
        198     0       2       0.414999999999999980    -0.589717649290623092   -8.214046959254234892   9.886324098761811285    0.0     0.0     0.0
        199     0       2       0.414999999999999980    -10.434873446001878605  -8.225341526826470684   9.892891494911181027    0.0     0.0     0.0